 *******************************************************************************
 ** Site#: 14762           For non-commercial use only        Version 12.203L **
 *******************************************************************************
 ** Cite this work as: MOPAC2012, James J. P. Stewart, Stewart Computational  **
 ** Chemistry, Version 12.203L web: HTTP://OpenMOPAC.net  Days remaining: 239 **
 *******************************************************************************
 **                                                                           **
 **                                MOPAC2012                                  **
 **                                                                           **
 *******************************************************************************

                            PM6 CALCULATION RESULTS


 *******************************************************************************
 *  CALCULATION DONE:                                Sun Nov 25 10:26:56 2012  *
 *  PM6      - The PM6 Hamiltonian to be used
 *  UHF      - UNRESTRICTED HARTREE-FOCK CALCULATION
 *  NOSYM    - POINT-GROUP SYMMETRY SET TO C1
 *  T=       - A TIME OF 172800.0 SECONDS REQUESTED
 *  DUMP=N   - RESTART FILE WRITTEN EVERY  7200.000 SECONDS
 *  GNORM=   - EXIT WHEN GRADIENT NORM DROPS BELOW 1.50    
 *******************************************************************************
 PM6 NOSYM GNORM=1.5 UHF
   MOPAC run
   ready to go?
   ATOM   CHEMICAL          X               Y               Z
  NUMBER   SYMBOL      (ANGSTROMS)     (ANGSTROMS)     (ANGSTROMS)
 
     1      Pt          0.00344824  *  -0.00671619  *   0.00244930  *
     2      Cl         -1.83782678  *  -1.61150592  *  -0.12449977  *
     3      Cl          1.58810786  *  -1.85198168  *  -0.02960464  *
     4      Cl          1.86652685  *   1.57534812  *   0.11565115  *
     5      Cl         -1.60072660  *   1.84703574  *   0.02944183  *
     6       O         -0.18312363  *  -0.16992992  *   2.02733222  *
     7       O          0.15168063  *   0.20964981  *  -2.02105792  *
     8       H         -0.48164026  *   0.87465344  *  -2.36276079  *
     9       H          1.07334585  *   0.33857189  *  -2.32566269  *
    10       H         -0.73075584  *   0.54519510  *   2.41145875  *
    11       H         -0.41550195  *  -1.07271364  *   2.32544667  *
 


          CARTESIAN COORDINATES 

    NO.       ATOM         X         Y         Z

     1        Pt        0.0034   -0.0067    0.0024
     2        Cl       -1.8378   -1.6115   -0.1245
     3        Cl        1.5881   -1.8520   -0.0296
     4        Cl        1.8665    1.5753    0.1157
     5        Cl       -1.6007    1.8470    0.0294
     6         O       -0.1831   -0.1699    2.0273
     7         O        0.1517    0.2096   -2.0211
     8         H       -0.4816    0.8747   -2.3628
     9         H        1.0733    0.3386   -2.3257
    10         H       -0.7308    0.5452    2.4115
    11         H       -0.4155   -1.0727    2.3254

 General Reference for PM6:
 "Optimization of Parameters for Semiempirical Methods V: Modification of NDDO Approximations
 and Application to 70 Elements", J. J. P. Stewart, J. Mol. Mod., 13, 1173-1213 (2007)
 URL: http://www.springerlink.com/content/ar33482301010477/fulltext.pdf

           Empirical Formula: H4 O2 Pt Cl4  =    11 atoms



      MOLECULAR POINT GROUP   :   C1  


          UHF CALCULATION, NO. OF ALPHA ELECTRONS =   27
                           NO. OF BETA  ELECTRONS =   27
      Geometry optimization using EF

          DIAGONAL MATRIX USED AS START HESSIAN

 CYCLE:     1 TIME:   0.276 TIME LEFT:  2.00D  GRAD.:    94.070 HEAT:-108.6973
 CYCLE:     2 TIME:   0.040 TIME LEFT:  2.00D  GRAD.:    77.952 HEAT:-117.9771
 CYCLE:     3 TIME:   0.042 TIME LEFT:  2.00D  GRAD.:    89.826 HEAT:-118.5844
 CYCLE:     4 TIME:   0.040 TIME LEFT:  2.00D  GRAD.:    25.001 HEAT:-124.2951
 CYCLE:     5 TIME:   0.068 TIME LEFT:  2.00D  GRAD.:    21.914 HEAT:-124.4736
 CYCLE:     6 TIME:   0.038 TIME LEFT:  2.00D  GRAD.:    12.148 HEAT:-124.8144
 CYCLE:     7 TIME:   0.036 TIME LEFT:  2.00D  GRAD.:     9.103 HEAT:-125.0055
 CYCLE:     8 TIME:   0.034 TIME LEFT:  2.00D  GRAD.:     7.773 HEAT:-125.1635
 CYCLE:     9 TIME:   0.035 TIME LEFT:  2.00D  GRAD.:     7.637 HEAT:-125.2847
 CYCLE:    10 TIME:   0.035 TIME LEFT:  2.00D  GRAD.:     8.905 HEAT:-125.3989
 CYCLE:    11 TIME:   0.036 TIME LEFT:  2.00D  GRAD.:     9.658 HEAT:-125.6157
 CYCLE:    12 TIME:   0.039 TIME LEFT:  2.00D  GRAD.:     9.823 HEAT:-125.9834
 CYCLE:    13 TIME:   0.039 TIME LEFT:  2.00D  GRAD.:    10.154 HEAT:-126.4409
 CYCLE:    14 TIME:   0.044 TIME LEFT:  2.00D  GRAD.:     9.872 HEAT:-126.9500
 CYCLE:    15 TIME:   0.037 TIME LEFT:  2.00D  GRAD.:     8.514 HEAT:-127.1502
 CYCLE:    16 TIME:   0.036 TIME LEFT:  2.00D  GRAD.:     5.637 HEAT:-127.2672
 CYCLE:    17 TIME:   0.034 TIME LEFT:  2.00D  GRAD.:     3.676 HEAT:-127.3272
 CYCLE:    18 TIME:   0.036 TIME LEFT:  2.00D  GRAD.:     3.819 HEAT:-127.3592
 CYCLE:    19 TIME:   0.037 TIME LEFT:  2.00D  GRAD.:     4.520 HEAT:-127.4033
 CYCLE:    20 TIME:   0.035 TIME LEFT:  2.00D  GRAD.:     4.605 HEAT:-127.4522
 CYCLE:    21 TIME:   0.038 TIME LEFT:  2.00D  GRAD.:     4.816 HEAT:-127.5156
 CYCLE:    22 TIME:   0.036 TIME LEFT:  2.00D  GRAD.:     4.604 HEAT:-127.5591
 CYCLE:    23 TIME:   0.038 TIME LEFT:  2.00D  GRAD.:    11.736 HEAT:-127.6826
 CYCLE:    24 TIME:   0.034 TIME LEFT:  2.00D  GRAD.:     7.117 HEAT:-127.7651
 CYCLE:    25 TIME:   0.035 TIME LEFT:  2.00D  GRAD.:     4.719 HEAT:-127.8626
 CYCLE:    26 TIME:   0.036 TIME LEFT:  2.00D  GRAD.:     5.939 HEAT:-128.0118
 CYCLE:    27 TIME:   0.038 TIME LEFT:  2.00D  GRAD.:     5.840 HEAT:-128.0800
 CYCLE:    28 TIME:   0.038 TIME LEFT:  2.00D  GRAD.:     4.933 HEAT:-128.1455
 CYCLE:    29 TIME:   0.035 TIME LEFT:  2.00D  GRAD.:     4.245 HEAT:-128.2206
 CYCLE:    30 TIME:   0.035 TIME LEFT:  2.00D  GRAD.:     4.402 HEAT:-128.2729
 CYCLE:    31 TIME:   0.035 TIME LEFT:  2.00D  GRAD.:     3.986 HEAT:-128.3016
 CYCLE:    32 TIME:   0.037 TIME LEFT:  2.00D  GRAD.:     3.086 HEAT:-128.3219
 CYCLE:    33 TIME:   0.034 TIME LEFT:  2.00D  GRAD.:     2.955 HEAT:-128.3419
 CYCLE:    34 TIME:   0.037 TIME LEFT:  2.00D  GRAD.:     5.020 HEAT:-128.3950
 CYCLE:    35 TIME:   0.036 TIME LEFT:  2.00D  GRAD.:     6.673 HEAT:-128.4617
 CYCLE:    36 TIME:   0.039 TIME LEFT:  2.00D  GRAD.:    12.835 HEAT:-128.5580
 CYCLE:    37 TIME:   0.038 TIME LEFT:  2.00D  GRAD.:     5.831 HEAT:-128.6599
 CYCLE:    38 TIME:   0.036 TIME LEFT:  2.00D  GRAD.:     2.872 HEAT:-128.7293
 CYCLE:    39 TIME:   0.039 TIME LEFT:  2.00D  GRAD.:    10.956 HEAT:-128.7399
 CYCLE:    40 TIME:   0.036 TIME LEFT:  2.00D  GRAD.:     2.963 HEAT:-128.8046
 CYCLE:    41 TIME:   0.034 TIME LEFT:  2.00D  GRAD.:     2.796 HEAT:-128.8223
 CYCLE:    42 TIME:   0.078 TIME LEFT:  2.00D  GRAD.:     7.363 HEAT:-128.8625
 CYCLE:    43 TIME:   0.034 TIME LEFT:  2.00D  GRAD.:     2.059 HEAT:-128.8898
 CYCLE:    44 TIME:   0.035 TIME LEFT:  2.00D  GRAD.:     1.610 HEAT:-128.9023
 CYCLE:    45 TIME:   0.083 TIME LEFT:  2.00D  GRAD.:     3.103 HEAT:-128.9233
 CYCLE:    46 TIME:   0.038 TIME LEFT:  2.00D  GRAD.:     2.415 HEAT:-128.9279
 CYCLE:    47 TIME:   0.035 TIME LEFT:  2.00D  GRAD.:     1.363 HEAT:-128.9336

     RMS GRADIENT =  1.36295  IS LESS THAN CUTOFF =  1.50000



 -------------------------------------------------------------------------------
 PM6 NOSYM GNORM=1.5 UHF
   MOPAC run
   ready to go?


     GEOMETRY OPTIMISED USING EIGENVECTOR FOLLOWING (EF).     
     SCF FIELD WAS ACHIEVED                                   


                              PM6 CALCULATION
                                                       MOPAC2012 (Version: 12.203L)
                                                       Sun Nov 25 10:26:59 2012
                                                       No. of days left = 239




          FINAL HEAT OF FORMATION =       -128.93426 KCAL/MOL =    -539.46093 KJ/MOL


          TOTAL ENERGY            =      -2097.09810 EV
          ELECTRONIC ENERGY       =      -7880.50144 EV  POINT GROUP:     C1  
          CORE-CORE REPULSION     =       5783.40334 EV
          COSMO AREA              =        174.50 SQUARE ANGSTROMS
          COSMO VOLUME            =        188.02 CUBIC ANGSTROMS

          GRADIENT NORM           =          1.36295
          IONIZATION POTENTIAL    =         10.198020 EV
          ALPHA SOMO LUMO (EV)    =        -10.201 -3.755
          BETA  SOMO LUMO (EV)    =        -10.198 -3.792
          NO. OF ALPHA ELECTRONS  =         27
          NO. OF BETA  ELECTRONS  =         27
          MOLECULAR WEIGHT        =        372.932

          MOLECULAR DIMENSIONS (Angstroms)

            Atom       Atom       Distance
            H    11    H     8     5.32088
           Cl     4   Cl     2     4.38375
           Cl     3   Cl     5     3.95646


          SCF CALCULATIONS        =         51
          COMPUTATION TIME        =          2.118 SECONDS




   ATOM   CHEMICAL          X               Y               Z
  NUMBER   SYMBOL      (ANGSTROMS)     (ANGSTROMS)     (ANGSTROMS)
 
     1      Pt         -0.00744987  *   0.01138616  *   0.00492171  *
     2      Cl         -1.77036578  *  -1.49740756  *   0.09283026  *
     3      Cl          1.44763904  *  -1.78351381  *   0.18900462  *
     4      Cl          1.74232787  *   1.53399705  *  -0.08722097  *
     5      Cl         -1.45904761  *   1.81092599  *  -0.19750977  *
     6       O         -0.15367929  *  -0.42452041  *   2.10386551  *
     7       O          0.14658403  *   0.40290323  *  -2.09938128  *
     8       H         -0.22771176  *   1.32777387  *  -2.29986625  *
     9       H          1.12420833  *   0.47847621  *  -2.35198005  *
    10       H         -1.11895010  *  -0.33853645  *   2.38444753  *
    11       H          0.05184356  *  -1.41284323  *   2.25234450  *

           Empirical Formula: H4 O2 Pt Cl4  =    11 atoms



      MOLECULAR POINT GROUP   :   C1  


          ALPHA EIGENVALUES  
 -34.27744 -33.21593 -27.40230 -27.35563 -27.17387 -27.13598 -21.46413 -21.43042
 -20.15013 -18.93665 -17.31009 -16.44994 -15.98600 -15.61135 -13.99188 -13.32392
 -13.22211 -13.06666 -12.83585 -12.42354 -11.94194 -11.64411 -11.53067 -11.46523
 -10.79123 -10.70534 -10.20116  -3.75539  -2.43863  -1.70715  -1.04758  -0.49954
   0.51751   0.90992   1.17309   2.68704   2.71824  89.23447  89.81429  90.15719
  90.40508  90.48123  90.61973  90.68449  90.81543  90.91864  91.07819  91.09034
  91.21832  91.32457  91.88076  91.88393  91.91482  91.97229  92.13413  92.56498
  92.67617


           BETA EIGENVALUES 
 -34.27772 -33.21986 -27.38939 -27.34369 -27.16046 -27.12469 -21.47798 -21.44585
 -20.20418 -19.00586 -17.25897 -16.44999 -15.94791 -15.58467 -13.96996 -13.31758
 -13.21099 -13.09633 -12.83902 -12.42259 -11.91177 -11.64894 -11.52641 -11.46370
 -10.86338 -10.73146 -10.19802  -3.79176  -2.45856  -1.68131  -0.73945  -0.55411
   0.12124   0.90670   1.15689   2.67255   2.70123  89.23300  89.81835  90.15656
  90.40578  90.48041  90.62565  90.68711  90.81674  90.91847  91.08305  91.09225
  91.21953  91.32707  91.88463  91.88836  91.91880  91.97695  92.13298  92.56997
  92.67832


              NET ATOMIC CHARGES AND DIPOLE CONTRIBUTIONS

  ATOM NO.   TYPE          CHARGE      No. of ELECS.   s-Pop       p-Pop       d-Pop       
    1         Pt           0.793941        9.2061     0.90009     0.96302     7.34295
    2         Cl          -0.383550        7.3836     1.99871     5.38082     0.00403
    3         Cl          -0.374137        7.3741     1.99867     5.37158     0.00389
    4         Cl          -0.379293        7.3793     1.99869     5.37659     0.00401
    5         Cl          -0.380031        7.3800     1.99867     5.37749     0.00387
    6          O          -0.395200        6.3952     1.73896     4.65624
    7          O          -0.398367        6.3984     1.73793     4.66043
    8          H           0.382210        0.6178     0.61779
    9          H           0.376742        0.6233     0.62326
   10          H           0.373351        0.6266     0.62665
   11          H           0.384334        0.6157     0.61567
 DIPOLE           X         Y         Z       TOTAL
 POINT-CHG.    -0.163     0.030     0.007     0.166
 HYBRID        -0.035     0.030    -0.016     0.049
 SUM           -0.198     0.060    -0.009     0.207


          CARTESIAN COORDINATES 

    NO.       ATOM               X         Y         Z

     1        Pt                 -0.0074    0.0114    0.0049
     2        Cl                 -1.7704   -1.4974    0.0928
     3        Cl                  1.4476   -1.7835    0.1890
     4        Cl                  1.7423    1.5340   -0.0872
     5        Cl                 -1.4590    1.8109   -0.1975
     6         O                 -0.1537   -0.4245    2.1039
     7         O                  0.1466    0.4029   -2.0994
     8         H                 -0.2277    1.3278   -2.2999
     9         H                  1.1242    0.4785   -2.3520
    10         H                 -1.1190   -0.3385    2.3844
    11         H                  0.0518   -1.4128    2.2523


          ATOMIC ORBITAL ELECTRON POPULATIONS

   0.90009   0.32642   0.33964   0.29695   1.95978   1.97368   0.70321   1.83593
   0.87034   1.99871   1.67122   1.74907   1.96053   0.00125   0.00097   0.00050
   0.00067   0.00064   1.99867   1.76846   1.64607   1.95705   0.00124   0.00078
   0.00042   0.00078   0.00066   1.99869   1.67529   1.74268   1.95862   0.00125
   0.00093   0.00051   0.00069   0.00064   1.99867   1.77304   1.64970   1.95475
   0.00123   0.00075   0.00044   0.00078   0.00067   1.73896   1.48975   1.49052
   1.67596   1.73793   1.45576   1.53230   1.67237   0.61779   0.62326   0.62665
   0.61567


                    (SZ)    =    0.000000
                    (S**2)  =    0.041846


          ATOMIC ORBITAL SPIN POPULATIONS

  -0.04096  -0.00006   0.00697  -0.00113   0.00163   0.00807  -0.06327   0.09138
   0.00263   0.00000  -0.00061  -0.00296   0.00549   0.00000   0.00001  -0.00001
   0.00000   0.00000   0.00000   0.00067  -0.00257   0.00373   0.00000   0.00001
  -0.00001   0.00000   0.00000   0.00000  -0.00005  -0.00231   0.00562   0.00000
   0.00001  -0.00001   0.00000   0.00000   0.00000   0.00114  -0.00160   0.00344
   0.00000   0.00001  -0.00001   0.00000   0.00000  -0.00328  -0.00015   0.00006
  -0.00022  -0.00357  -0.00033   0.00020  -0.00175  -0.00212  -0.00108  -0.00063
  -0.00234



 TOTAL CPU TIME:             2.12 SECONDS

 == MOPAC DONE ==
